
    -----------------------------------------------------------------------
          Psi4: An Open-Source Ab Initio Electronic Structure Package
                               Psi4 1.10 release

                         Git: Rev {} zzzzzzz 


    D. G. A. Smith, L. A. Burns, A. C. Simmonett, R. M. Parrish,
    M. C. Schieber, R. Galvelis, P. Kraus, H. Kruse, R. Di Remigio,
    A. Alenaizan, A. M. James, S. Lehtola, J. P. Misiewicz, M. Scheurer,
    R. A. Shaw, J. B. Schriber, Y. Xie, Z. L. Glick, D. A. Sirianni,
    J. S. O'Brien, J. M. Waldrop, A. Kumar, E. G. Hohenstein,
    B. P. Pritchard, B. R. Brooks, H. F. Schaefer III, A. Yu. Sokolov,
    K. Patkowski, A. E. DePrince III, U. Bozkaya, R. A. King,
    F. A. Evangelista, J. M. Turney, T. D. Crawford, C. D. Sherrill,
    J. Chem. Phys. 152(18) 184108 (2020). https://doi.org/10.1063/5.0006002

                            Additional Code Authors
    E. T. Seidl, C. L. Janssen, E. F. Valeev, M. L. Leininger,
    J. F. Gonthier, R. M. Richard, H. R. McAlexander, M. Saitow, X. Wang,
    P. Verma, M. H. Lechner, A. Jiang, S. Behnle, A. G. Heide,
    M. F. Herbst, D. L. Poole, T. Győri, E. C. Mitchell, J. P. Pederson,
    and A. M. Wallace

             Previous Authors, Complete List of Code Contributors,
                       and Citations for Specific Modules
    https://github.com/psi4/psi4/blob/master/codemeta.json
    https://github.com/psi4/psi4/graphs/contributors
    https://psicode.org/psi4manual/master/introduction.html#citing-psifour

    -----------------------------------------------------------------------


    Psi4 started on: Thursday, 05 March 2026 09:48PM

    Process ID: 66929
    Host:       rainmaker.local
    PSIDATADIR: /opt/miniconda3/envs/regular/share/psi4
    Memory:     500.0 MiB
    Threads:    1
    Addons:     a̶d̶c̶c̶, a̶m̶b̶i̶t̶, bse, c̶c̶t̶3̶, c̶f̶o̶u̶r̶, c̶h̶e̶m̶p̶s̶2̶, c̶p̶p̶e̶, d̶d̶x̶, d̶f̶t̶d̶3̶,
                d̶f̶t̶d̶4̶, dkh, ecpint, einsums, f̶o̶r̶t̶e̶, g̶a̶u̶x̶c̶, gcp, g̶d̶m̶a̶,
                geometric, g̶p̶u̶_̶d̶f̶c̶c̶, i̶n̶t̶e̶g̶r̶a̶t̶o̶r̶x̶x̶, i̶p̶i̶, l̶i̶b̶e̶f̶p̶,
                m̶d̶i̶, m̶p̶2̶d̶, m̶r̶c̶c̶, ooo, o̶p̶e̶n̶f̶e̶r̶m̶i̶o̶n̶p̶s̶i̶4̶, pcmsolver,
                p̶s̶i̶4̶f̶o̶c̶k̶c̶i̶, p̶s̶i̶x̶a̶s̶, r̶e̶s̶p̶, s̶i̶m̶i̶n̶t̶, s̶n̶s̶m̶p̶2̶,
                v̶2̶r̶d̶m̶_̶c̶a̶s̶s̶c̶f̶

  ==> Input File <==

--------------------------------------------------------------------------
molecule mol {
0 1
N 0 0 0
N 0 0 1.1
symmetry c1
}

set {
  basis         pcseg-0
  cabs_basis    ../pcseg-cabs
  freeze_core   True
  mp2_type      conv
  f12_beta      1.0
  cabs_singles  True
}

energy('mp2-f12')
--------------------------------------------------------------------------

Scratch directory: /tmp/
    SCF Algorithm Type (re)set to PK.
   => Libint2 <=

    Primary   basis highest AM E, G, H:  7, 6, 3
    Auxiliary basis highest AM E, G, H:  7, 7, 4
    Onebody   basis highest AM E, G, H:  -, -, -
    Solid Harmonics ordering:            Gaussian

*** tstart() called on rainmaker.local
*** at Thu Mar  5 21:48:06 2026

   => Loading Basis Set <=

    Name: PCSEG-0
    Role: ORBITAL
    Keyword: BASIS
    atoms 1-2 entry N          line    87 file /opt/miniconda3/envs/regular/share/psi4/basis/pcseg-0.gbs 


         ---------------------------------------------------------
                                   SCF
               by Justin Turney, Rob Parrish, Andy Simmonett
                          and Daniel G. A. Smith
                              RHF Reference
                        1 Threads,    500 MiB Core
         ---------------------------------------------------------

  ==> Geometry <==

    Molecular point group: c1
    Full point group: D_inf_h

    Geometry (in Angstrom), charge = 0, multiplicity = 1:

       Center              X                  Y                   Z               Mass       
    ------------   -----------------  -----------------  -----------------  -----------------
         N            0.000000000000     0.000000000000    -0.550000000000    14.003074004430
         N            0.000000000000     0.000000000000     0.550000000000    14.003074004430

  Running in c1 symmetry.

  Rotational constants: A = ************  B =      1.98984  C =      1.98984 [cm^-1]
  Rotational constants: A = ************  B =  59653.84489  C =  59653.84489 [MHz]
  Nuclear repulsion =   23.572439384390908

  Charge       = 0
  Multiplicity = 1
  Electrons    = 14
  Nalpha       = 7
  Nbeta        = 7

  ==> Algorithm <==

  SCF Algorithm Type is PK.
  DIIS enabled.
  MOM disabled.
  Fractional occupation disabled.
  Guess Type is SAD.
  Energy threshold   = 1.00e-08
  Density threshold  = 1.00e-08
  Integral threshold = 1.00e-12

  ==> Primary Basis <==

  Basis Set: PCSEG-0
    Blend: PCSEG-0
    Number of shells: 10
    Number of basis functions: 18
    Number of Cartesian functions: 18
    Spherical Harmonics?: true
    Max angular momentum: 1

  ==> Integral Setup <==

  Using in-core PK algorithm.
   Calculation information:
      Number of atoms:                   2
      Number of AO shells:              10
      Number of primitives:             18
      Number of atomic orbitals:        18
      Number of basis functions:        18

      Integral cutoff                 1.00e-12
      Number of threads:                 1

  Performing in-core PK
  Using 29412 doubles for integral storage.
  We computed 1540 shell quartets total.
  Whereas there are 1540 unique shell quartets.

  ==> DiskJK: Disk-Based J/K Matrices <==

    J tasked:                  Yes
    K tasked:                  Yes
    wK tasked:                  No
    Memory [MiB]:              375
    Schwarz Cutoff:          1E-12

    OpenMP threads:              1

  Minimum eigenvalue in the overlap matrix is 1.1821734239E-02.
  Reciprocal condition number of the overlap matrix is 3.6854617546E-03.
    Using symmetric orthogonalization.

  ==> Pre-Iterations <==

  SCF Guess: Superposition of Atomic Densities via on-the-fly atomic UHF (no occupation information).

   -------------------------
    Irrep   Nso     Nmo    
   -------------------------
     A         18      18 
   -------------------------
    Total      18      18
   -------------------------

  ==> Iterations <==

                        Total Energy        Delta E     RMS |[F,P]|

   @RHF iter SAD:  -108.68832049523029   -1.08688e+02   0.00000e+00 
   @RHF iter   1:  -108.33014841023565    3.58172e-01   4.35894e-02 ADIIS/DIIS
   @RHF iter   2:  -108.58194108245252   -2.51793e-01   9.63589e-03 ADIIS/DIIS
   @RHF iter   3:  -108.59439792418911   -1.24568e-02   8.19376e-04 ADIIS/DIIS
   @RHF iter   4:  -108.59454386813121   -1.45944e-04   7.97501e-05 DIIS
   @RHF iter   5:  -108.59454534213427   -1.47400e-06   7.85875e-06 DIIS
   @RHF iter   6:  -108.59454535539878   -1.32645e-08   3.29416e-07 DIIS
   @RHF iter   7:  -108.59454535541707   -1.82894e-11   3.34522e-08 DIIS
   @RHF iter   8:  -108.59454535541707    0.00000e+00   2.06270e-09 DIIS
  Energy and wave function converged.


  ==> Post-Iterations <==

    Orbital Energies [Eh]
    ---------------------

    Doubly Occupied:                                                      

       1A    -15.714406     2A    -15.710857     3A     -1.531151  
       4A     -0.773218     5A     -0.634753     6A     -0.631545  
       7A     -0.631545  

    Virtual:                                                              

       8A      0.149486     9A      0.149486    10A      0.763791  
      11A      0.779676    12A      0.925837    13A      1.233160  
      14A      1.314251    15A      1.314251    16A      1.436998  
      17A      1.436998    18A      1.756928  

    Final Occupation by Irrep:
              A 
    DOCC [     7 ]
    NA   [     7 ]
    NB   [     7 ]

  @RHF Final Energy:  -108.59454535541707

   => Energetics <=

    Nuclear Repulsion Energy =             23.5724393843909077
    One-Electron Energy =                -193.0790208019528222
    Two-Electron Energy =                  60.9120360621448427
    Total Energy =                       -108.5945453554170683

Computation Completed


Properties will be evaluated at   0.000000,   0.000000,   0.000000 [a0]

Properties computed using the SCF density matrix


 Multipole Moments:

 ------------------------------------------------------------------------------------
     Multipole            Electronic (a.u.)      Nuclear  (a.u.)        Total (a.u.)
 ------------------------------------------------------------------------------------

 L = 1.  Multiply by 2.5417464519 to convert [e a0] to [Debye]
 Dipole X            :          0.0000000            0.0000000            0.0000000
 Dipole Y            :         -0.0000000            0.0000000           -0.0000000
 Dipole Z            :         -0.0000000            0.0000000           -0.0000000
 Magnitude           :                                                    0.0000000

 ------------------------------------------------------------------------------------

*** tstop() called on rainmaker.local at Thu Mar  5 21:48:06 2026
Module time:
	user time   =       0.22 seconds =       0.00 minutes
	system time =       0.04 seconds =       0.00 minutes
	total time  =          0 seconds =       0.00 minutes
Total time:
	user time   =       0.22 seconds =       0.00 minutes
	system time =       0.04 seconds =       0.00 minutes
	total time  =          0 seconds =       0.00 minutes
 MINTS: Wrapper to libmints.
   by Justin Turney

   Calculation information:
      Number of threads:                 1
      Number of atoms:                   2
      Number of AO shells:              10
      Number of SO shells:              10
      Number of primitives:             18
      Number of atomic orbitals:        18
      Number of basis functions:        18

      Number of irreps:                  1
      Integral cutoff                 1.00e-12
      Number of functions per irrep: [  18 ]

 OEINTS: Overlap, kinetic, potential, dipole, and quadrupole integrals
         stored in file 35.

      Computing two-electron integrals...done
      Computed 4350 non-zero two-electron integrals.
        Stored in file 33.


*** tstart() called on rainmaker.local
*** at Thu Mar  5 21:48:06 2026



  Module OCC Options:
  ----------------------------------------------------------------------------
  ACTIVE                        => (empty)          
  BASIS_RELATIVISTIC            => (empty)          
  BENCH                         => (empty)          
  CACHELEVEL                    => (empty)          
  CCL_ENERGY                    => (empty)          
  CC_MAXITER                    => (empty)          
  CC_TYPE                       => (empty)          
  CEPA_OS_SCALE                 => (empty)          
  CEPA_SOS_SCALE                => (empty)          
  CEPA_SS_SCALE                 => (empty)          
  CEPA_TYPE                     => (empty)          
  CI_TYPE                       => (empty)          
  CUBEPROP_BASIS_FUNCTIONS      => (empty)          
  CUBEPROP_FILEPATH             => (empty)          
  CUBEPROP_ISOCONTOUR_THRESHOLD => (empty)          
  CUBEPROP_ORBITALS             => (empty)          
  CUBEPROP_TASKS                => (empty)          
  CUBIC_BASIS_TOLERANCE         => (empty)          
  CUBIC_BLOCK_MAX_POINTS        => (empty)          
  CUBIC_GRID_OVERAGE            => (empty)          
  CUBIC_GRID_SPACING            => (empty)          
  CUTOFF                        => (empty)          
  DDX                           => (empty)          
  DEBUG                         => (empty)          
  DERTYPE                       => (empty)          
  DF_BASIS_CC                   => (empty)          
  DIE_IF_NOT_CONVERGED          => (empty)          
  DIIS_MAX_VECS                 => (empty)          
  DIIS_MIN_VECS                 => (empty)          
  DKH_ORDER                     => (empty)          
  DOCC                          => (empty)          
  DO_DIIS                       => (empty)          
  DO_LEVEL_SHIFT                => (empty)          
  DO_SCS                        => (empty)          
  DO_SOS                        => (empty)          
  E3_SCALE                      => (empty)          
  EA_POLES                      => (empty)          
  EKT_EA                        => (empty)          
  EKT_IP                        => (empty)          
  EP_EA_POLES                   => (empty)          
  EP_IP_POLES                   => (empty)          
  EP_MAXITER                    => (empty)          
  EXTERNAL_POTENTIAL_SYMMETRY   => (empty)          
  E_CONVERGENCE                 => 1e-06           !
  FREEZE_CORE                   => TRUE            !
  FREEZE_CORE_POLICY            => (empty)          
  FROZEN_DOCC                   => (empty)          
  FROZEN_UOCC                   => (empty)          
  INTEGRAL_PACKAGE              => (empty)          
  IP_POLES                      => (empty)          
  LEVEL_SHIFT                   => (empty)          
  LITERAL_CFOUR                 => (empty)          
  LS_THC_BASIS_TOLERANCE        => (empty)          
  LS_THC_DF                     => (empty)          
  LS_THC_PRUNING_SCHEME         => (empty)          
  LS_THC_RADIAL_POINTS          => (empty)          
  LS_THC_SPHERICAL_POINTS       => (empty)          
  LS_THC_S_EPSILON              => (empty)          
  LS_THC_WEIGHTS_TOLERANCE      => (empty)          
  MAT_NUM_COLUMN_PRINT          => (empty)          
  MAX_MOGRAD_CONVERGENCE        => (empty)          
  MAX_RADIAL_MOMENT             => (empty)          
  MBIS_D_CONVERGENCE            => (empty)          
  MBIS_MAXITER                  => (empty)          
  MBIS_PRUNING_SCHEME           => (empty)          
  MBIS_RADIAL_POINTS            => (empty)          
  MBIS_SPHERICAL_POINTS         => (empty)          
  MOGRAD_DAMPING                => (empty)          
  MOLDEN_WITH_VIRTUAL           => (empty)          
  MO_MAXITER                    => (empty)          
  MO_READ                       => (empty)          
  MO_STEP_MAX                   => (empty)          
  MO_WRITE                      => (empty)          
  MP2_OS_SCALE                  => (empty)          
  MP2_SOS_SCALE                 => (empty)          
  MP2_SOS_SCALE2                => (empty)          
  MP2_SS_SCALE                  => (empty)          
  MP2_TYPE                      => CONV            !
  MP_TYPE                       => (empty)          
  NAT_ORBS                      => (empty)          
  NUM_FROZEN_DOCC               => (empty)          
  NUM_FROZEN_UOCC               => (empty)          
  NUM_GPUS                      => (empty)          
  OCC_ORBS_PRINT                => (empty)          
  OEPROP                        => (empty)          
  OPT_METHOD                    => (empty)          
  ORBITAL_OPTIMIZER_PACKAGE     => (empty)          
  ORB_OPT                       => FALSE           !
  ORB_RESP_SOLVER               => (empty)          
  ORTH_TYPE                     => (empty)          
  OS_SCALE                      => (empty)          
  PARENT_SYMMETRY               => (empty)          
  PCG_BETA_TYPE                 => (empty)          
  PCG_CONVERGENCE               => (empty)          
  PCG_MAXITER                   => (empty)          
  PCM                           => (empty)          
  PE                            => (empty)          
  PRINT                         => (empty)          
  PRINT_NOONS                   => (empty)          
  PROPERTIES                    => (empty)          
  PROPERTIES_ORIGIN             => (empty)          
  PUREAM                        => (empty)          
  QC_MODULE                     => (empty)          
  RAS1                          => (empty)          
  RAS2                          => (empty)          
  RAS3                          => (empty)          
  RAS4                          => (empty)          
  RELATIVISTIC                  => (empty)          
  RELAXED                       => (empty)          
  REMP_A                        => (empty)          
  RESTRICTED_DOCC               => (empty)          
  RESTRICTED_UOCC               => (empty)          
  RMS_MOGRAD_CONVERGENCE        => (empty)          
  R_CONVERGENCE                 => (empty)          
  SCF_TYPE                      => PK              !
  SCREENING                     => (empty)          
  SCS_TYPE                      => (empty)          
  SOCC                          => (empty)          
  SOS_TYPE                      => (empty)          
  SPIN_SCALE_TYPE               => NONE            !
  SS_SCALE                      => (empty)          
  SYMMETRIZE                    => (empty)          
  TPDM_ABCD_TYPE                => (empty)          
  WFN                           => (empty)          
  WFN_TYPE                      => OMP2            !
  WRITER_FILE_LABEL             => (empty)          


 ============================================================================== 
 ============================================================================== 
 ============================================================================== 

                             MP2   
                    Program Written by Ugur Bozkaya,
              Additional Contributions by J. P. Misiewicz

 ============================================================================== 
 ============================================================================== 
 ============================================================================== 

	MO spaces per irreps... 

	IRREP   FC    OCC   VIR  FV 
	==============================
	   A     2     5    11    0
	==============================

	Memory is    524 MB 
	Cost of iabc is      0 MB 
	Cost of abcd is      0 MB 
	Switching to the incore algorithm for iabc..
	Switching to the incore algorithm for abcd..

	Computing MP2 energy using SCF MOs (Canonical MP2)... 
	============================================================================== 
	Nuclear Repulsion Energy (a.u.)    :    23.57243938439091
	SCF Energy (a.u.)                  :  -108.59454535541707
	REF Energy (a.u.)                  :  -108.59454535541707
	Alpha-Alpha Contribution (a.u.)    :    -0.03360664947264
	Alpha-Beta Contribution (a.u.)     :    -0.17583562438772
	Beta-Beta Contribution (a.u.)      :    -0.03360664947264
	Scaled_SS Correlation Energy (a.u.):    -0.02240443298176
	Scaled_OS Correlation Energy (a.u.):    -0.21100274926526
	SCS-MP2 Total Energy (a.u.)        :  -108.82795253766410
	SOS-MP2 Total Energy (a.u.)        :  -108.80554810468233
	SCSN-MP2 Total Energy (a.u.)       :  -108.71284076156078
	SCS-MP2-VDW Total Energy (a.u.)    :  -108.85322160410598
	SOS-PI-MP2 Total Energy (a.u.)     :  -108.84071522955988
	MP2 Correlation Energy (a.u.)      :    -0.24304892333301
	MP2 Total Energy (a.u.)            :  -108.83759427875007
	============================================================================== 


*** tstop() called on rainmaker.local at Thu Mar  5 21:48:06 2026
Module time:
	user time   =       0.00 seconds =       0.00 minutes
	system time =       0.00 seconds =       0.00 minutes
	total time  =          0 seconds =       0.00 minutes
Total time:
	user time   =       0.22 seconds =       0.00 minutes
	system time =       0.04 seconds =       0.00 minutes
	total time  =          0 seconds =       0.00 minutes

*** tstart() called on rainmaker.local
*** at Thu Mar  5 21:48:06 2026


  //>>>>>>>>>>>>>>>>>>>>>>>>>>>>>>>>>>>//
  //              MP2-F12              //
  //<<<<<<<<<<<<<<<<<<<<<<<<<<<<<<<<<<<//


 -----------------------------------------------------------
                        MP2-F12/3C(FIX)                     
                     Explicitly Correlated                  
               2nd Order Moeller-Plesset Theory             
                RMP2 Wavefunction,  1 Threads              

                        Erica Mitchell                      
 -----------------------------------------------------------

 Using CONV INCORE algorithm 

 ===> Forming the OBS and CABS <===

  Orbital Basis Set (OBS)
  Basis Set: PCSEG-0
    Blend: PCSEG-0
    Number of shells: 10
    Number of basis functions: 18
    Number of Cartesian functions: 18
    Spherical Harmonics?: true
    Max angular momentum: 1

  Complementary Auxiliary Basis Set (CABS)
    Orthogonalizing basis for space RIBS.
    0 linear dependencies will be 'removed'.
    Projecting out 'ALL' from 'RIBS' to obtain space 'CABS'
    0 linear dependencies will be 'removed'.
        Orbital space before projecting out:    (n = 1): 138  
        Orbital space after projecting out:     (n = 1): 120  

  Basis Set: CABS
    Blend: PCSEG-0 + ../PCSEG-CABS
    Number of shells: 42
    Number of basis functions: 138
    Number of Cartesian functions: 164
    Spherical Harmonics?: true
    Max angular momentum: 3

  Frozen Core Orbitals:   2 

  ----------------------------------------
      NOCC   NOBS   NCABS    NRI   NAUX   
  ----------------------------------------
         7     18     120    138      0   
  ----------------------------------------

 ===> Forming the Integrals <===
 No screening will be used to compute integrals
   Fock Matrix
   One-Electron Integrals
     Forming J
     Forming K

 ===> Forming the F12 Intermediate Tensors <===
   V Intermediate
   X Intermediate
   C Intermediate
   B Intermediate

 ===> Computing F12/3C(FIX) Energy Correction <===
  
  i   j  |     E_F12(Singlet)     E_F12(Triplet)            E_F12 
 ----------------------------------------------------------------------
  3   3  |    -0.011489358681     0.000000000000      -0.011489358681 
  3   4  |    -0.002684641538    -0.003415736469      -0.006100378008 
  3   5  |    -0.006776805598    -0.002480294579      -0.009257100177 
  3   6  |    -0.011373122662    -0.005236086991      -0.016609209654 
  3   7  |    -0.011373122662    -0.005236086991      -0.016609209654 
  4   4  |    -0.007115484751     0.000000000000      -0.007115484751 
  4   5  |    -0.016247606823    -0.001647335361      -0.017894942184 
  4   6  |    -0.009200357668    -0.005209113544      -0.014409471212 
  4   7  |    -0.009200357668    -0.005209113544      -0.014409471212 
  5   5  |    -0.009486051203     0.000000000000      -0.009486051203 
  5   6  |    -0.006366707476    -0.006672263526      -0.013038971002 
  5   7  |    -0.006366707476    -0.006672263526      -0.013038971002 
  6   6  |    -0.010817999957     0.000000000000      -0.010817999957 
  6   7  |    -0.008127360666    -0.008309459934      -0.016436820600 
  7   7  |    -0.010817999957     0.000000000000      -0.010817999957 

 ===> MP2-F12/3C(FIX) Energies <===

     RHF Reference Energy:              -108.594545355417 
     CABS Singles Correction:            -0.192662990417 
     CABS-corrected Reference Energy:   -108.787208345834 
     MP2 Correlation Energy:             -0.243048923333 
     F12/3C(FIX) Correction Energy:      -0.187531439252 
     MP2-F12/3C(FIX) Correlation Energy: -0.430580362585 
  Total MP2-F12/3C(FIX) Energy:         -109.217788708419 

*** tstop() called on rainmaker.local at Thu Mar  5 21:48:07 2026
Module time:
	user time   =       0.91 seconds =       0.02 minutes
	system time =       0.05 seconds =       0.00 minutes
	total time  =          1 seconds =       0.02 minutes
Total time:
	user time   =       1.13 seconds =       0.02 minutes
	system time =       0.09 seconds =       0.00 minutes
	total time  =          1 seconds =       0.02 minutes

    Psi4 stopped on: Thursday, 05 March 2026 09:48PM
    Psi4 wall time for execution: 0:00:01.34

*** Psi4 exiting successfully. Buy a developer a beer!
