
    -----------------------------------------------------------------------
          Psi4: An Open-Source Ab Initio Electronic Structure Package
                               Psi4 1.10 release

                         Git: Rev {} zzzzzzz 


    D. G. A. Smith, L. A. Burns, A. C. Simmonett, R. M. Parrish,
    M. C. Schieber, R. Galvelis, P. Kraus, H. Kruse, R. Di Remigio,
    A. Alenaizan, A. M. James, S. Lehtola, J. P. Misiewicz, M. Scheurer,
    R. A. Shaw, J. B. Schriber, Y. Xie, Z. L. Glick, D. A. Sirianni,
    J. S. O'Brien, J. M. Waldrop, A. Kumar, E. G. Hohenstein,
    B. P. Pritchard, B. R. Brooks, H. F. Schaefer III, A. Yu. Sokolov,
    K. Patkowski, A. E. DePrince III, U. Bozkaya, R. A. King,
    F. A. Evangelista, J. M. Turney, T. D. Crawford, C. D. Sherrill,
    J. Chem. Phys. 152(18) 184108 (2020). https://doi.org/10.1063/5.0006002

                            Additional Code Authors
    E. T. Seidl, C. L. Janssen, E. F. Valeev, M. L. Leininger,
    J. F. Gonthier, R. M. Richard, H. R. McAlexander, M. Saitow, X. Wang,
    P. Verma, M. H. Lechner, A. Jiang, S. Behnle, A. G. Heide,
    M. F. Herbst, D. L. Poole, T. Győri, E. C. Mitchell, J. P. Pederson,
    and A. M. Wallace

             Previous Authors, Complete List of Code Contributors,
                       and Citations for Specific Modules
    https://github.com/psi4/psi4/blob/master/codemeta.json
    https://github.com/psi4/psi4/graphs/contributors
    https://psicode.org/psi4manual/master/introduction.html#citing-psifour

    -----------------------------------------------------------------------


    Psi4 started on: Thursday, 05 March 2026 09:49PM

    Process ID: 67058
    Host:       rainmaker.local
    PSIDATADIR: /opt/miniconda3/envs/regular/share/psi4
    Memory:     500.0 MiB
    Threads:    1
    Addons:     a̶d̶c̶c̶, a̶m̶b̶i̶t̶, bse, c̶c̶t̶3̶, c̶f̶o̶u̶r̶, c̶h̶e̶m̶p̶s̶2̶, c̶p̶p̶e̶, d̶d̶x̶, d̶f̶t̶d̶3̶,
                d̶f̶t̶d̶4̶, dkh, ecpint, einsums, f̶o̶r̶t̶e̶, g̶a̶u̶x̶c̶, gcp, g̶d̶m̶a̶,
                geometric, g̶p̶u̶_̶d̶f̶c̶c̶, i̶n̶t̶e̶g̶r̶a̶t̶o̶r̶x̶x̶, i̶p̶i̶, l̶i̶b̶e̶f̶p̶,
                m̶d̶i̶, m̶p̶2̶d̶, m̶r̶c̶c̶, ooo, o̶p̶e̶n̶f̶e̶r̶m̶i̶o̶n̶p̶s̶i̶4̶, pcmsolver,
                p̶s̶i̶4̶f̶o̶c̶k̶c̶i̶, p̶s̶i̶x̶a̶s̶, r̶e̶s̶p̶, s̶i̶m̶i̶n̶t̶, s̶n̶s̶m̶p̶2̶,
                v̶2̶r̶d̶m̶_̶c̶a̶s̶s̶c̶f̶

  ==> Input File <==

--------------------------------------------------------------------------
molecule mol {
0 1
O   0.000000   0.000000   0.117176
H   0.000000   0.757329  -0.468706
H   0.000000  -0.757329  -0.468706
symmetry c1
}

set {
  basis         pcseg-0
  cabs_basis    ../pcseg-cabs
  freeze_core   True
  mp2_type      conv
  f12_beta      1.0
  cabs_singles  True
}

energy('mp2-f12')
--------------------------------------------------------------------------

Scratch directory: /tmp/
    SCF Algorithm Type (re)set to PK.
   => Libint2 <=

    Primary   basis highest AM E, G, H:  7, 6, 3
    Auxiliary basis highest AM E, G, H:  7, 7, 4
    Onebody   basis highest AM E, G, H:  -, -, -
    Solid Harmonics ordering:            Gaussian

*** tstart() called on rainmaker.local
*** at Thu Mar  5 21:49:02 2026

   => Loading Basis Set <=

    Name: PCSEG-0
    Role: ORBITAL
    Keyword: BASIS
    atoms 1   entry O          line   103 file /opt/miniconda3/envs/regular/share/psi4/basis/pcseg-0.gbs 
    atoms 2-3 entry H          line    13 file /opt/miniconda3/envs/regular/share/psi4/basis/pcseg-0.gbs 


         ---------------------------------------------------------
                                   SCF
               by Justin Turney, Rob Parrish, Andy Simmonett
                          and Daniel G. A. Smith
                              RHF Reference
                        1 Threads,    500 MiB Core
         ---------------------------------------------------------

  ==> Geometry <==

    Molecular point group: c1
    Full point group: C2v

    Geometry (in Angstrom), charge = 0, multiplicity = 1:

       Center              X                  Y                   Z               Mass       
    ------------   -----------------  -----------------  -----------------  -----------------
         O            0.000000000000     0.000000000000     0.065568909792    15.994914619570
         H            0.000000000000     0.757329000000    -0.520313090208     1.007825032230
         H            0.000000000000    -0.757329000000    -0.520313090208     1.007825032230

  Running in c1 symmetry.

  Rotational constants: A =     27.43509  B =     14.58184  C =      9.52126 [cm^-1]
  Rotational constants: A = 822483.42565  B = 437152.42096  C = 285440.13072 [MHz]
  Nuclear repulsion =    9.192025018145296

  Charge       = 0
  Multiplicity = 1
  Electrons    = 10
  Nalpha       = 5
  Nbeta        = 5

  ==> Algorithm <==

  SCF Algorithm Type is PK.
  DIIS enabled.
  MOM disabled.
  Fractional occupation disabled.
  Guess Type is SAD.
  Energy threshold   = 1.00e-08
  Density threshold  = 1.00e-08
  Integral threshold = 1.00e-12

  ==> Primary Basis <==

  Basis Set: PCSEG-0
    Blend: PCSEG-0
    Number of shells: 9
    Number of basis functions: 13
    Number of Cartesian functions: 13
    Spherical Harmonics?: true
    Max angular momentum: 1

  ==> Integral Setup <==

  Using in-core PK algorithm.
   Calculation information:
      Number of atoms:                   3
      Number of AO shells:               9
      Number of primitives:             15
      Number of atomic orbitals:        13
      Number of basis functions:        13

      Integral cutoff                 1.00e-12
      Number of threads:                 1

  Performing in-core PK
  Using 8372 doubles for integral storage.
  We computed 1035 shell quartets total.
  Whereas there are 1035 unique shell quartets.

  ==> DiskJK: Disk-Based J/K Matrices <==

    J tasked:                  Yes
    K tasked:                  Yes
    wK tasked:                  No
    Memory [MiB]:              375
    Schwarz Cutoff:          1E-12

    OpenMP threads:              1

  Minimum eigenvalue in the overlap matrix is 7.1765299864E-02.
  Reciprocal condition number of the overlap matrix is 2.0816121600E-02.
    Using symmetric orthogonalization.

  ==> Pre-Iterations <==

  SCF Guess: Superposition of Atomic Densities via on-the-fly atomic UHF (no occupation information).

   -------------------------
    Irrep   Nso     Nmo    
   -------------------------
     A         13      13 
   -------------------------
    Total      13      13
   -------------------------

  ==> Iterations <==

                        Total Energy        Delta E     RMS |[F,P]|

   @RHF iter SAD:   -76.26135641875105   -7.62614e+01   0.00000e+00 
   @RHF iter   1:   -75.68296100985715    5.78395e-01   3.34549e-02 DIIS/ADIIS
   @RHF iter   2:   -75.76089355462938   -7.79325e-02   1.54378e-02 DIIS/ADIIS
   @RHF iter   3:   -75.77353465910231   -1.26411e-02   3.30491e-03 DIIS/ADIIS
   @RHF iter   4:   -75.77425096859967   -7.16309e-04   1.89507e-04 DIIS/ADIIS
   @RHF iter   5:   -75.77425462205215   -3.65345e-06   2.53545e-05 DIIS
   @RHF iter   6:   -75.77425472422358   -1.02171e-07   4.50437e-06 DIIS
   @RHF iter   7:   -75.77425472633003   -2.10645e-09   3.95879e-07 DIIS
   @RHF iter   8:   -75.77425472634830   -1.82752e-11   5.72457e-08 DIIS
   @RHF iter   9:   -75.77425472634907   -7.67386e-13   1.72324e-08 DIIS
   @RHF iter  10:   -75.77425472634910   -2.84217e-14   5.60497e-10 DIIS
  Energy and wave function converged.


  ==> Post-Iterations <==

    Orbital Energies [Eh]
    ---------------------

    Doubly Occupied:                                                      

       1A    -20.540891     2A     -1.339547     3A     -0.700021  
       4A     -0.552382     5A     -0.496633  

    Virtual:                                                              

       6A      0.189663     7A      0.290836     8A      0.958922  
       9A      1.079973    10A      1.472973    11A      1.760130  
      12A      1.904509    13A      1.970464  

    Final Occupation by Irrep:
              A 
    DOCC [     5 ]
    NA   [     5 ]
    NB   [     5 ]

  @RHF Final Energy:   -75.77425472634910

   => Energetics <=

    Nuclear Repulsion Energy =              9.1920250181452960
    One-Electron Energy =                -122.6736097319614913
    Two-Electron Energy =                  37.7073299874670909
    Total Energy =                        -75.7742547263490991

Computation Completed


Properties will be evaluated at   0.000000,   0.000000,   0.000000 [a0]

Properties computed using the SCF density matrix


 Multipole Moments:

 ------------------------------------------------------------------------------------
     Multipole            Electronic (a.u.)      Nuclear  (a.u.)        Total (a.u.)
 ------------------------------------------------------------------------------------

 L = 1.  Multiply by 2.5417464519 to convert [e a0] to [Debye]
 Dipole X            :         -0.0000000            0.0000000           -0.0000000
 Dipole Y            :          0.0000000            0.0000000            0.0000000
 Dipole Z            :         -0.0276624           -0.9752402           -1.0029026
 Magnitude           :                                                    1.0029026

 ------------------------------------------------------------------------------------

*** tstop() called on rainmaker.local at Thu Mar  5 21:49:02 2026
Module time:
	user time   =       0.23 seconds =       0.00 minutes
	system time =       0.03 seconds =       0.00 minutes
	total time  =          0 seconds =       0.00 minutes
Total time:
	user time   =       0.23 seconds =       0.00 minutes
	system time =       0.03 seconds =       0.00 minutes
	total time  =          0 seconds =       0.00 minutes
 MINTS: Wrapper to libmints.
   by Justin Turney

   Calculation information:
      Number of threads:                 1
      Number of atoms:                   3
      Number of AO shells:               9
      Number of SO shells:               9
      Number of primitives:             15
      Number of atomic orbitals:        13
      Number of basis functions:        13

      Number of irreps:                  1
      Integral cutoff                 1.00e-12
      Number of functions per irrep: [  13 ]

 OEINTS: Overlap, kinetic, potential, dipole, and quadrupole integrals
         stored in file 35.

      Computing two-electron integrals...done
      Computed 2260 non-zero two-electron integrals.
        Stored in file 33.


*** tstart() called on rainmaker.local
*** at Thu Mar  5 21:49:02 2026



  Module OCC Options:
  ----------------------------------------------------------------------------
  ACTIVE                        => (empty)          
  BASIS_RELATIVISTIC            => (empty)          
  BENCH                         => (empty)          
  CACHELEVEL                    => (empty)          
  CCL_ENERGY                    => (empty)          
  CC_MAXITER                    => (empty)          
  CC_TYPE                       => (empty)          
  CEPA_OS_SCALE                 => (empty)          
  CEPA_SOS_SCALE                => (empty)          
  CEPA_SS_SCALE                 => (empty)          
  CEPA_TYPE                     => (empty)          
  CI_TYPE                       => (empty)          
  CUBEPROP_BASIS_FUNCTIONS      => (empty)          
  CUBEPROP_FILEPATH             => (empty)          
  CUBEPROP_ISOCONTOUR_THRESHOLD => (empty)          
  CUBEPROP_ORBITALS             => (empty)          
  CUBEPROP_TASKS                => (empty)          
  CUBIC_BASIS_TOLERANCE         => (empty)          
  CUBIC_BLOCK_MAX_POINTS        => (empty)          
  CUBIC_GRID_OVERAGE            => (empty)          
  CUBIC_GRID_SPACING            => (empty)          
  CUTOFF                        => (empty)          
  DDX                           => (empty)          
  DEBUG                         => (empty)          
  DERTYPE                       => (empty)          
  DF_BASIS_CC                   => (empty)          
  DIE_IF_NOT_CONVERGED          => (empty)          
  DIIS_MAX_VECS                 => (empty)          
  DIIS_MIN_VECS                 => (empty)          
  DKH_ORDER                     => (empty)          
  DOCC                          => (empty)          
  DO_DIIS                       => (empty)          
  DO_LEVEL_SHIFT                => (empty)          
  DO_SCS                        => (empty)          
  DO_SOS                        => (empty)          
  E3_SCALE                      => (empty)          
  EA_POLES                      => (empty)          
  EKT_EA                        => (empty)          
  EKT_IP                        => (empty)          
  EP_EA_POLES                   => (empty)          
  EP_IP_POLES                   => (empty)          
  EP_MAXITER                    => (empty)          
  EXTERNAL_POTENTIAL_SYMMETRY   => (empty)          
  E_CONVERGENCE                 => 1e-06           !
  FREEZE_CORE                   => TRUE            !
  FREEZE_CORE_POLICY            => (empty)          
  FROZEN_DOCC                   => (empty)          
  FROZEN_UOCC                   => (empty)          
  INTEGRAL_PACKAGE              => (empty)          
  IP_POLES                      => (empty)          
  LEVEL_SHIFT                   => (empty)          
  LITERAL_CFOUR                 => (empty)          
  LS_THC_BASIS_TOLERANCE        => (empty)          
  LS_THC_DF                     => (empty)          
  LS_THC_PRUNING_SCHEME         => (empty)          
  LS_THC_RADIAL_POINTS          => (empty)          
  LS_THC_SPHERICAL_POINTS       => (empty)          
  LS_THC_S_EPSILON              => (empty)          
  LS_THC_WEIGHTS_TOLERANCE      => (empty)          
  MAT_NUM_COLUMN_PRINT          => (empty)          
  MAX_MOGRAD_CONVERGENCE        => (empty)          
  MAX_RADIAL_MOMENT             => (empty)          
  MBIS_D_CONVERGENCE            => (empty)          
  MBIS_MAXITER                  => (empty)          
  MBIS_PRUNING_SCHEME           => (empty)          
  MBIS_RADIAL_POINTS            => (empty)          
  MBIS_SPHERICAL_POINTS         => (empty)          
  MOGRAD_DAMPING                => (empty)          
  MOLDEN_WITH_VIRTUAL           => (empty)          
  MO_MAXITER                    => (empty)          
  MO_READ                       => (empty)          
  MO_STEP_MAX                   => (empty)          
  MO_WRITE                      => (empty)          
  MP2_OS_SCALE                  => (empty)          
  MP2_SOS_SCALE                 => (empty)          
  MP2_SOS_SCALE2                => (empty)          
  MP2_SS_SCALE                  => (empty)          
  MP2_TYPE                      => CONV            !
  MP_TYPE                       => (empty)          
  NAT_ORBS                      => (empty)          
  NUM_FROZEN_DOCC               => (empty)          
  NUM_FROZEN_UOCC               => (empty)          
  NUM_GPUS                      => (empty)          
  OCC_ORBS_PRINT                => (empty)          
  OEPROP                        => (empty)          
  OPT_METHOD                    => (empty)          
  ORBITAL_OPTIMIZER_PACKAGE     => (empty)          
  ORB_OPT                       => FALSE           !
  ORB_RESP_SOLVER               => (empty)          
  ORTH_TYPE                     => (empty)          
  OS_SCALE                      => (empty)          
  PARENT_SYMMETRY               => (empty)          
  PCG_BETA_TYPE                 => (empty)          
  PCG_CONVERGENCE               => (empty)          
  PCG_MAXITER                   => (empty)          
  PCM                           => (empty)          
  PE                            => (empty)          
  PRINT                         => (empty)          
  PRINT_NOONS                   => (empty)          
  PROPERTIES                    => (empty)          
  PROPERTIES_ORIGIN             => (empty)          
  PUREAM                        => (empty)          
  QC_MODULE                     => (empty)          
  RAS1                          => (empty)          
  RAS2                          => (empty)          
  RAS3                          => (empty)          
  RAS4                          => (empty)          
  RELATIVISTIC                  => (empty)          
  RELAXED                       => (empty)          
  REMP_A                        => (empty)          
  RESTRICTED_DOCC               => (empty)          
  RESTRICTED_UOCC               => (empty)          
  RMS_MOGRAD_CONVERGENCE        => (empty)          
  R_CONVERGENCE                 => (empty)          
  SCF_TYPE                      => PK              !
  SCREENING                     => (empty)          
  SCS_TYPE                      => (empty)          
  SOCC                          => (empty)          
  SOS_TYPE                      => (empty)          
  SPIN_SCALE_TYPE               => NONE            !
  SS_SCALE                      => (empty)          
  SYMMETRIZE                    => (empty)          
  TPDM_ABCD_TYPE                => (empty)          
  WFN                           => (empty)          
  WFN_TYPE                      => OMP2            !
  WRITER_FILE_LABEL             => (empty)          


 ============================================================================== 
 ============================================================================== 
 ============================================================================== 

                             MP2   
                    Program Written by Ugur Bozkaya,
              Additional Contributions by J. P. Misiewicz

 ============================================================================== 
 ============================================================================== 
 ============================================================================== 

	MO spaces per irreps... 

	IRREP   FC    OCC   VIR  FV 
	==============================
	   A     1     4     8    0
	==============================

	Memory is    524 MB 
	Cost of iabc is      0 MB 
	Cost of abcd is      0 MB 
	Switching to the incore algorithm for iabc..
	Switching to the incore algorithm for abcd..

	Computing MP2 energy using SCF MOs (Canonical MP2)... 
	============================================================================== 
	Nuclear Repulsion Energy (a.u.)    :     9.19202501814530
	SCF Energy (a.u.)                  :   -75.77425472634910
	REF Energy (a.u.)                  :   -75.77425472634910
	Alpha-Alpha Contribution (a.u.)    :    -0.01448822665462
	Alpha-Beta Contribution (a.u.)     :    -0.09664065288278
	Beta-Beta Contribution (a.u.)      :    -0.01448822665462
	Scaled_SS Correlation Energy (a.u.):    -0.00965881776974
	Scaled_OS Correlation Energy (a.u.):    -0.11596878345934
	SCS-MP2 Total Energy (a.u.)        :   -75.89988232757818
	SOS-MP2 Total Energy (a.u.)        :   -75.89022350980844
	SCSN-MP2 Total Energy (a.u.)       :   -75.82525328417334
	SCS-MP2-VDW Total Energy (a.u.)    :   -75.91244298869367
	SOS-PI-MP2 Total Energy (a.u.)     :   -75.90955164038499
	MP2 Correlation Energy (a.u.)      :    -0.12561710619201
	MP2 Total Energy (a.u.)            :   -75.89987183254111
	============================================================================== 


*** tstop() called on rainmaker.local at Thu Mar  5 21:49:02 2026
Module time:
	user time   =       0.00 seconds =       0.00 minutes
	system time =       0.01 seconds =       0.00 minutes
	total time  =          0 seconds =       0.00 minutes
Total time:
	user time   =       0.23 seconds =       0.00 minutes
	system time =       0.04 seconds =       0.00 minutes
	total time  =          0 seconds =       0.00 minutes

*** tstart() called on rainmaker.local
*** at Thu Mar  5 21:49:02 2026


  //>>>>>>>>>>>>>>>>>>>>>>>>>>>>>>>>>>>//
  //              MP2-F12              //
  //<<<<<<<<<<<<<<<<<<<<<<<<<<<<<<<<<<<//


 -----------------------------------------------------------
                        MP2-F12/3C(FIX)                     
                     Explicitly Correlated                  
               2nd Order Moeller-Plesset Theory             
                RMP2 Wavefunction,  1 Threads              

                        Erica Mitchell                      
 -----------------------------------------------------------

 Using CONV INCORE algorithm 

 ===> Forming the OBS and CABS <===

  Orbital Basis Set (OBS)
  Basis Set: PCSEG-0
    Blend: PCSEG-0
    Number of shells: 9
    Number of basis functions: 13
    Number of Cartesian functions: 13
    Spherical Harmonics?: true
    Max angular momentum: 1

  Complementary Auxiliary Basis Set (CABS)
    Orthogonalizing basis for space RIBS.
    0 linear dependencies will be 'removed'.
    Projecting out 'ALL' from 'RIBS' to obtain space 'CABS'
    0 linear dependencies will be 'removed'.
        Orbital space before projecting out:    (n = 1): 79  
        Orbital space after projecting out:     (n = 1): 66  

  Basis Set: CABS
    Blend: PCSEG-0 + ../PCSEG-CABS
    Number of shells: 31
    Number of basis functions: 79
    Number of Cartesian functions: 92
    Spherical Harmonics?: true
    Max angular momentum: 3

  Frozen Core Orbitals:   1 

  ----------------------------------------
      NOCC   NOBS   NCABS    NRI   NAUX   
  ----------------------------------------
         5     13      66     79      0   
  ----------------------------------------

 ===> Forming the Integrals <===
 No screening will be used to compute integrals
   Fock Matrix
   One-Electron Integrals
     Forming J
     Forming K

 ===> Forming the F12 Intermediate Tensors <===
   V Intermediate
   X Intermediate
   C Intermediate
   B Intermediate

 ===> Computing F12/3C(FIX) Energy Correction <===
  
  i   j  |     E_F12(Singlet)     E_F12(Triplet)            E_F12 
 ----------------------------------------------------------------------
  2   2  |    -0.007797168009     0.000000000000      -0.007797168009 
  2   3  |    -0.015007164849    -0.003749463859      -0.018756628708 
  2   4  |    -0.012030592036    -0.004059027460      -0.016089619496 
  2   5  |    -0.014894898214    -0.005118444419      -0.020013342633 
  3   3  |    -0.012481467701     0.000000000000      -0.012481467701 
  3   4  |    -0.008982131261    -0.009903959845      -0.018886091106 
  3   5  |    -0.010377685491    -0.011608026252      -0.021985711743 
  4   4  |    -0.016144783963     0.000000000000      -0.016144783963 
  4   5  |    -0.013093728244    -0.012339470159      -0.025433198402 
  5   5  |    -0.017951104019     0.000000000000      -0.017951104019 

 ===> MP2-F12/3C(FIX) Energies <===

     RHF Reference Energy:              -75.774254726349 
     CABS Singles Correction:            -0.122825268378 
     CABS-corrected Reference Energy:   -75.897079994727 
     MP2 Correlation Energy:             -0.125617106192 
     F12/3C(FIX) Correction Energy:      -0.175539115780 
     MP2-F12/3C(FIX) Correlation Energy: -0.301156221972 
  Total MP2-F12/3C(FIX) Energy:         -76.198236216700 

*** tstop() called on rainmaker.local at Thu Mar  5 21:49:02 2026
Module time:
	user time   =       0.18 seconds =       0.00 minutes
	system time =       0.01 seconds =       0.00 minutes
	total time  =          0 seconds =       0.00 minutes
Total time:
	user time   =       0.41 seconds =       0.01 minutes
	system time =       0.05 seconds =       0.00 minutes
	total time  =          0 seconds =       0.00 minutes

    Psi4 stopped on: Thursday, 05 March 2026 09:49PM
    Psi4 wall time for execution: 0:00:00.53

*** Psi4 exiting successfully. Buy a developer a beer!
